+ 0 0 2 cbr 210 ------- 2 0.0 8.0 0 0
- 0 0 2 cbr 210 ------- 2 0.0 8.0 0 0
+ 0 1 2 cbr 210 ------- 2 1.0 8.0 0 1
- 0 1 2 cbr 210 ------- 2 1.0 8.0 0 1
+ 0.00336 0 2 cbr 210 ------- 2 0.0 8.0 1 2
- 0.00336 0 2 cbr 210 ------- 2 0.0 8.0 1 2
+ 0.00336 1 2 cbr 210 ------- 2 1.0 8.0 1 3
- 0.00336 1 2 cbr 210 ------- 2 1.0 8.0 1 3
+ 0.00672 0 2 cbr 210 ------- 2 0.0 8.0 2 4
- 0.00672 0 2 cbr 210 ------- 2 0.0 8.0 2 4
+ 0.00672 1 2 cbr 210 ------- 2 1.0 8.0 2 5
- 0.00672 1 2 cbr 210 ------- 2 1.0 8.0 2 5
r 0.006768 0 2 cbr 210 ------- 2 0.0 8.0 0 0
+ 0.006768 2 8 cbr 210 ------- 2 0.0 8.0 0 0
- 0.006768 2 8 cbr 210 ------- 2 0.0 8.0 0 0
r 0.006768 1 2 cbr 210 ------- 2 1.0 8.0 0 1
+ 0.006768 2 8 cbr 210 ------- 2 1.0 8.0 0 1
- 0.008537 2 8 cbr 210 ------- 2 1.0 8.0 0 1
+ 0.01008 0 2 cbr 210 ------- 2 0.0 8.0 3 6
- 0.01008 0 2 cbr 210 ------- 2 0.0 8.0 3 6
+ 0.01008 1 2 cbr 210 ------- 2 1.0 8.0 3 7
- 0.01008 1 2 cbr 210 ------- 2 1.0 8.0 3 7
r 0.010128 0 2 cbr 210 ------- 2 0.0 8.0 1 2
+ 0.010128 2 8 cbr 210 ------- 2 0.0 8.0 1 2
r 0.010128 1 2 cbr 210 ------- 2 1.0 8.0 1 3
+ 0.010128 2 8 cbr 210 ------- 2 1.0 8.0 1 3
- 0.010305 2 8 cbr 210 ------- 2 0.0 8.0 1 2
- 0.012074 2 8 cbr 210 ------- 2 1.0 8.0 1 3
+ 0.01344 0 2 cbr 210 ------- 2 0.0 8.0 4 8
- 0.01344 0 2 cbr 210 ------- 2 0.0 8.0 4 8
+ 0.01344 1 2 cbr 210 ------- 2 1.0 8.0 4 9
- 0.01344 1 2 cbr 210 ------- 2 1.0 8.0 4 9
r 0.013488 0 2 cbr 210 ------- 2 0.0 8.0 2 4
+ 0.013488 2 8 cbr 210 ------- 2 0.0 8.0 2 4
r 0.013488 1 2 cbr 210 ------- 2 1.0 8.0 2 5
+ 0.013488 2 8 cbr 210 ------- 2 1.0 8.0 2 5
r 0.013537 2 8 cbr 210 ------- 2 0.0 8.0 0 0
- 0.013842 2 8 cbr 210 ------- 2 0.0 8.0 2 4
r 0.015305 2 8 cbr 210 ------- 2 1.0 8.0 0 1
- 0.015611 2 8 cbr 210 ------- 2 1.0 8.0 2 5
+ 0.0168 0 2 cbr 210 ------- 2 0.0 8.0 5 10
- 0.0168 0 2 cbr 210 ------- 2 0.0 8.0 5 10
+ 0.0168 1 2 cbr 210 ------- 2 1.0 8.0 5 11
- 0.0168 1 2 cbr 210 ------- 2 1.0 8.0 5 11
r 0.016848 0 2 cbr 210 ------- 2 0.0 8.0 3 6
+ 0.016848 2 8 cbr 210 ------- 2 0.0 8.0 3 6
r 0.016848 1 2 cbr 210 ------- 2 1.0 8.0 3 7
+ 0.016848 2 8 cbr 210 ------- 2 1.0 8.0 3 7
r 0.017074 2 8 cbr 210 ------- 2 0.0 8.0 1 2
- 0.017379 2 8 cbr 210 ------- 2 0.0 8.0 3 6
r 0.018842 2 8 cbr 210 ------- 2 1.0 8.0 1 3
- 0.019147 2 8 cbr 210 ------- 2 1.0 8.0 3 7
+ 0.02016 0 2 cbr 210 ------- 2 0.0 8.0 6 12
- 0.02016 0 2 cbr 210 ------- 2 0.0 8.0 6 12
+ 0.02016 1 2 cbr 210 ------- 2 1.0 8.0 6 13
- 0.02016 1 2 cbr 210 ------- 2 1.0 8.0 6 13
r 0.020208 0 2 cbr 210 ------- 2 0.0 8.0 4 8
+ 0.020208 2 8 cbr 210 ------- 2 0.0 8.0 4 8
r 0.020208 1 2 cbr 210 ------- 2 1.0 8.0 4 9
+ 0.020208 2 8 cbr 210 ------- 2 1.0 8.0 4 9
r 0.020611 2 8 cbr 210 ------- 2 0.0 8.0 2 4
- 0.020916 2 8 cbr 210 ------- 2 0.0 8.0 4 8
r 0.022379 2 8 cbr 210 ------- 2 1.0 8.0 2 5
- 0.022684 2 8 cbr 210 ------- 2 1.0 8.0 4 9
+ 0.02352 0 2 cbr 210 ------- 2 0.0 8.0 7 14
- 0.02352 0 2 cbr 210 ------- 2 0.0 8.0 7 14
+ 0.02352 1 2 cbr 210 ------- 2 1.0 8.0 7 15
- 0.02352 1 2 cbr 210 ------- 2 1.0 8.0 7 15
r 0.023568 0 2 cbr 210 ------- 2 0.0 8.0 5 10
+ 0.023568 2 8 cbr 210 ------- 2 0.0 8.0 5 10
r 0.023568 1 2 cbr 210 ------- 2 1.0 8.0 5 11
+ 0.023568 2 8 cbr 210 ------- 2 1.0 8.0 5 11
r 0.024147 2 8 cbr 210 ------- 2 0.0 8.0 3 6
- 0.024453 2 8 cbr 210 ------- 2 0.0 8.0 5 10
r 0.025916 2 8 cbr 210 ------- 2 1.0 8.0 3 7
- 0.026221 2 8 cbr 210 ------- 2 1.0 8.0 5 11
+ 0.02688 0 2 cbr 210 ------- 2 0.0 8.0 8 16
- 0.02688 0 2 cbr 210 ------- 2 0.0 8.0 8 16
+ 0.02688 1 2 cbr 210 ------- 2 1.0 8.0 8 17
- 0.02688 1 2 cbr 210 ------- 2 1.0 8.0 8 17
r 0.026928 0 2 cbr 210 ------- 2 0.0 8.0 6 12
+ 0.026928 2 8 cbr 210 ------- 2 0.0 8.0 6 12
r 0.026928 1 2 cbr 210 ------- 2 1.0 8.0 6 13
+ 0.026928 2 8 cbr 210 ------- 2 1.0 8.0 6 13
r 0.027684 2 8 cbr 210 ------- 2 0.0 8.0 4 8
- 0.027989 2 8 cbr 210 ------- 2 0.0 8.0 6 12
r 0.029453 2 8 cbr 210 ------- 2 1.0 8.0 4 9
- 0.029758 2 8 cbr 210 ------- 2 1.0 8.0 6 13
+ 0.03024 0 2 cbr 210 ------- 2 0.0 8.0 9 18
- 0.03024 0 2 cbr 210 ------- 2 0.0 8.0 9 18
+ 0.03024 1 2 cbr 210 ------- 2 1.0 8.0 9 19
- 0.03024 1 2 cbr 210 ------- 2 1.0 8.0 9 19
r 0.030288 0 2 cbr 210 ------- 2 0.0 8.0 7 14
+ 0.030288 2 8 cbr 210 ------- 2 0.0 8.0 7 14
r 0.030288 1 2 cbr 210 ------- 2 1.0 8.0 7 15
+ 0.030288 2 8 cbr 210 ------- 2 1.0 8.0 7 15
r 0.031221 2 8 cbr 210 ------- 2 0.0 8.0 5 10
- 0.031526 2 8 cbr 210 ------- 2 0.0 8.0 7 14
r 0.032989 2 8 cbr 210 ------- 2 1.0 8.0 5 11
- 0.033295 2 8 cbr 210 ------- 2 1.0 8.0 7 15
+ 0.0336 0 2 cbr 210 ------- 2 0.0 8.0 10 20
- 0.0336 0 2 cbr 210 ------- 2 0.0 8.0 10 20
+ 0.0336 1 2 cbr 210 ------- 2 1.0 8.0 10 21
- 0.0336 1 2 cbr 210 ------- 2 1.0 8.0 10 21
r 0.033648 0 2 cbr 210 ------- 2 0.0 8.0 8 16
+ 0.033648 2 8 cbr 210 ------- 2 0.0 8.0 8 16
r 0.033648 1 2 cbr 210 ------- 2 1.0 8.0 8 17
+ 0.033648 2 8 cbr 210 ------- 2 1.0 8.0 8 17
r 0.034758 2 8 cbr 210 ------- 2 0.0 8.0 6 12
- 0.035063 2 8 cbr 210 ------- 2 0.0 8.0 8 16
r 0.036526 2 8 cbr 210 ------- 2 1.0 8.0 6 13
- 0.036832 2 8 cbr 210 ------- 2 1.0 8.0 8 17
+ 0.03696 0 2 cbr 210 ------- 2 0.0 8.0 11 22
- 0.03696 0 2 cbr 210 ------- 2 0.0 8.0 11 22
+ 0.03696 1 2 cbr 210 ------- 2 1.0 8.0 11 23
- 0.03696 1 2 cbr 210 ------- 2 1.0 8.0 11 23
r 0.037008 0 2 cbr 210 ------- 2 0.0 8.0 9 18
+ 0.037008 2 8 cbr 210 ------- 2 0.0 8.0 9 18
r 0.037008 1 2 cbr 210 ------- 2 1.0 8.0 9 19
+ 0.037008 2 8 cbr 210 ------- 2 1.0 8.0 9 19
r 0.038295 2 8 cbr 210 ------- 2 0.0 8.0 7 14
- 0.0386 2 8 cbr 210 ------- 2 0.0 8.0 9 18
r 0.040063 2 8 cbr 210 ------- 2 1.0 8.0 7 15
+ 0.04032 0 2 cbr 210 ------- 2 0.0 8.0 12 24
- 0.04032 0 2 cbr 210 ------- 2 0.0 8.0 12 24
+ 0.04032 1 2 cbr 210 ------- 2 1.0 8.0 12 25
- 0.04032 1 2 cbr 210 ------- 2 1.0 8.0 12 25
- 0.040368 2 8 cbr 210 ------- 2 1.0 8.0 9 19
r 0.040368 0 2 cbr 210 ------- 2 0.0 8.0 10 20
+ 0.040368 2 8 cbr 210 ------- 2 0.0 8.0 10 20
r 0.040368 1 2 cbr 210 ------- 2 1.0 8.0 10 21
+ 0.040368 2 8 cbr 210 ------- 2 1.0 8.0 10 21
r 0.041832 2 8 cbr 210 ------- 2 0.0 8.0 8 16
- 0.042137 2 8 cbr 210 ------- 2 0.0 8.0 10 20
r 0.0436 2 8 cbr 210 ------- 2 1.0 8.0 8 17
+ 0.04368 0 2 cbr 210 ------- 2 0.0 8.0 13 26
- 0.04368 0 2 cbr 210 ------- 2 0.0 8.0 13 26
+ 0.04368 1 2 cbr 210 ------- 2 1.0 8.0 13 27
- 0.04368 1 2 cbr 210 ------- 2 1.0 8.0 13 27
r 0.043728 0 2 cbr 210 ------- 2 0.0 8.0 11 22
+ 0.043728 2 8 cbr 210 ------- 2 0.0 8.0 11 22
r 0.043728 1 2 cbr 210 ------- 2 1.0 8.0 11 23
+ 0.043728 2 8 cbr 210 ------- 2 1.0 8.0 11 23
- 0.043905 2 8 cbr 210 ------- 2 1.0 8.0 10 21
r 0.045368 2 8 cbr 210 ------- 2 0.0 8.0 9 18
- 0.045674 2 8 cbr 210 ------- 2 0.0 8.0 11 22
+ 0.04704 0 2 cbr 210 ------- 2 0.0 8.0 14 28
- 0.04704 0 2 cbr 210 ------- 2 0.0 8.0 14 28
+ 0.04704 1 2 cbr 210 ------- 2 1.0 8.0 14 29
- 0.04704 1 2 cbr 210 ------- 2 1.0 8.0 14 29
r 0.047088 0 2 cbr 210 ------- 2 0.0 8.0 12 24
+ 0.047088 2 8 cbr 210 ------- 2 0.0 8.0 12 24
r 0.047088 1 2 cbr 210 ------- 2 1.0 8.0 12 25
+ 0.047088 2 8 cbr 210 ------- 2 1.0 8.0 12 25
r 0.047137 2 8 cbr 210 ------- 2 1.0 8.0 9 19
- 0.047442 2 8 cbr 210 ------- 2 1.0 8.0 11 23
r 0.048905 2 8 cbr 210 ------- 2 0.0 8.0 10 20
- 0.049211 2 8 cbr 210 ------- 2 0.0 8.0 12 24
+ 0.0504 0 2 cbr 210 ------- 2 0.0 8.0 15 30
- 0.0504 0 2 cbr 210 ------- 2 0.0 8.0 15 30
+ 0.0504 1 2 cbr 210 ------- 2 1.0 8.0 15 31
- 0.0504 1 2 cbr 210 ------- 2 1.0 8.0 15 31
r 0.050448 0 2 cbr 210 ------- 2 0.0 8.0 13 26
+ 0.050448 2 8 cbr 210 ------- 2 0.0 8.0 13 26
r 0.050448 1 2 cbr 210 ------- 2 1.0 8.0 13 27
+ 0.050448 2 8 cbr 210 ------- 2 1.0 8.0 13 27
r 0.050674 2 8 cbr 210 ------- 2 1.0 8.0 10 21
- 0.050979 2 8 cbr 210 ------- 2 1.0 8.0 12 25
r 0.052442 2 8 cbr 210 ------- 2 0.0 8.0 11 22
- 0.052747 2 8 cbr 210 ------- 2 0.0 8.0 13 26
+ 0.05376 0 2 cbr 210 ------- 2 0.0 8.0 16 32
- 0.05376 0 2 cbr 210 ------- 2 0.0 8.0 16 32
+ 0.05376 1 2 cbr 210 ------- 2 1.0 8.0 16 33
- 0.05376 1 2 cbr 210 ------- 2 1.0 8.0 16 33
r 0.053808 0 2 cbr 210 ------- 2 0.0 8.0 14 28
+ 0.053808 2 8 cbr 210 ------- 2 0.0 8.0 14 28
r 0.053808 1 2 cbr 210 ------- 2 1.0 8.0 14 29
+ 0.053808 2 8 cbr 210 ------- 2 1.0 8.0 14 29
r 0.054211 2 8 cbr 210 ------- 2 1.0 8.0 11 23
- 0.054516 2 8 cbr 210 ------- 2 1.0 8.0 13 27
r 0.055979 2 8 cbr 210 ------- 2 0.0 8.0 12 24
- 0.056284 2 8 cbr 210 ------- 2 0.0 8.0 14 28
+ 0.05712 0 2 cbr 210 ------- 2 0.0 8.0 17 34
- 0.05712 0 2 cbr 210 ------- 2 0.0 8.0 17 34
+ 0.05712 1 2 cbr 210 ------- 2 1.0 8.0 17 35
- 0.05712 1 2 cbr 210 ------- 2 1.0 8.0 17 35
r 0.057168 0 2 cbr 210 ------- 2 0.0 8.0 15 30
+ 0.057168 2 8 cbr 210 ------- 2 0.0 8.0 15 30
r 0.057168 1 2 cbr 210 ------- 2 1.0 8.0 15 31
+ 0.057168 2 8 cbr 210 ------- 2 1.0 8.0 15 31
r 0.057747 2 8 cbr 210 ------- 2 1.0 8.0 12 25
- 0.058053 2 8 cbr 210 ------- 2 1.0 8.0 14 29
r 0.059516 2 8 cbr 210 ------- 2 0.0 8.0 13 26
- 0.059821 2 8 cbr 210 ------- 2 0.0 8.0 15 30
+ 0.06048 0 2 cbr 210 ------- 2 0.0 8.0 18 36
- 0.06048 0 2 cbr 210 ------- 2 0.0 8.0 18 36
+ 0.06048 1 2 cbr 210 ------- 2 1.0 8.0 18 37
- 0.06048 1 2 cbr 210 ------- 2 1.0 8.0 18 37
r 0.060528 0 2 cbr 210 ------- 2 0.0 8.0 16 32
+ 0.060528 2 8 cbr 210 ------- 2 0.0 8.0 16 32
r 0.060528 1 2 cbr 210 ------- 2 1.0 8.0 16 33
+ 0.060528 2 8 cbr 210 ------- 2 1.0 8.0 16 33
r 0.061284 2 8 cbr 210 ------- 2 1.0 8.0 13 27
- 0.061589 2 8 cbr 210 ------- 2 1.0 8.0 15 31
r 0.063053 2 8 cbr 210 ------- 2 0.0 8.0 14 28
- 0.063358 2 8 cbr 210 ------- 2 0.0 8.0 16 32
+ 0.06384 0 2 cbr 210 ------- 2 0.0 8.0 19 38
- 0.06384 0 2 cbr 210 ------- 2 0.0 8.0 19 38
+ 0.06384 1 2 cbr 210 ------- 2 1.0 8.0 19 39
- 0.06384 1 2 cbr 210 ------- 2 1.0 8.0 19 39
r 0.063888 0 2 cbr 210 ------- 2 0.0 8.0 17 34
+ 0.063888 2 8 cbr 210 ------- 2 0.0 8.0 17 34
r 0.063888 1 2 cbr 210 ------- 2 1.0 8.0 17 35
+ 0.063888 2 8 cbr 210 ------- 2 1.0 8.0 17 35
r 0.064821 2 8 cbr 210 ------- 2 1.0 8.0 14 29
- 0.065126 2 8 cbr 210 ------- 2 1.0 8.0 16 33
r 0.066589 2 8 cbr 210 ------- 2 0.0 8.0 15 30
- 0.066895 2 8 cbr 210 ------- 2 0.0 8.0 17 34
+ 0.0672 0 2 cbr 210 ------- 2 0.0 8.0 20 40
- 0.0672 0 2 cbr 210 ------- 2 0.0 8.0 20 40
+ 0.0672 1 2 cbr 210 ------- 2 1.0 8.0 20 41
- 0.0672 1 2 cbr 210 ------- 2 1.0 8.0 20 41
r 0.067248 0 2 cbr 210 ------- 2 0.0 8.0 18 36
+ 0.067248 2 8 cbr 210 ------- 2 0.0 8.0 18 36
r 0.067248 1 2 cbr 210 ------- 2 1.0 8.0 18 37
+ 0.067248 2 8 cbr 210 ------- 2 1.0 8.0 18 37
r 0.068358 2 8 cbr 210 ------- 2 1.0 8.0 15 31
- 0.068663 2 8 cbr 210 ------- 2 1.0 8.0 17 35
r 0.070126 2 8 cbr 210 ------- 2 0.0 8.0 16 32
- 0.070432 2 8 cbr 210 ------- 2 0.0 8.0 18 36
+ 0.07056 0 2 cbr 210 ------- 2 0.0 8.0 21 42
- 0.07056 0 2 cbr 210 ------- 2 0.0 8.0 21 42
+ 0.07056 1 2 cbr 210 ------- 2 1.0 8.0 21 43
- 0.07056 1 2 cbr 210 ------- 2 1.0 8.0 21 43
r 0.070608 0 2 cbr 210 ------- 2 0.0 8.0 19 38
+ 0.070608 2 8 cbr 210 ------- 2 0.0 8.0 19 38
r 0.070608 1 2 cbr 210 ------- 2 1.0 8.0 19 39
+ 0.070608 2 8 cbr 210 ------- 2 1.0 8.0 19 39
r 0.071895 2 8 cbr 210 ------- 2 1.0 8.0 16 33
- 0.0722 2 8 cbr 210 ------- 2 1.0 8.0 18 37
r 0.073663 2 8 cbr 210 ------- 2 0.0 8.0 17 34
+ 0.07392 0 2 cbr 210 ------- 2 0.0 8.0 22 44
- 0.07392 0 2 cbr 210 ------- 2 0.0 8.0 22 44
+ 0.07392 1 2 cbr 210 ------- 2 1.0 8.0 22 45
- 0.07392 1 2 cbr 210 ------- 2 1.0 8.0 22 45
r 0.073968 0 2 cbr 210 ------- 2 0.0 8.0 20 40
+ 0.073968 2 8 cbr 210 ------- 2 0.0 8.0 20 40
r 0.073968 1 2 cbr 210 ------- 2 1.0 8.0 20 41
+ 0.073968 2 8 cbr 210 ------- 2 1.0 8.0 20 41
- 0.073968 2 8 cbr 210 ------- 2 0.0 8.0 19 38
r 0.075432 2 8 cbr 210 ------- 2 1.0 8.0 17 35
- 0.075737 2 8 cbr 210 ------- 2 1.0 8.0 19 39
r 0.0772 2 8 cbr 210 ------- 2 0.0 8.0 18 36
+ 0.07728 0 2 cbr 210 ------- 2 0.0 8.0 23 46
- 0.07728 0 2 cbr 210 ------- 2 0.0 8.0 23 46
+ 0.07728 1 2 cbr 210 ------- 2 1.0 8.0 23 47
- 0.07728 1 2 cbr 210 ------- 2 1.0 8.0 23 47
r 0.077328 0 2 cbr 210 ------- 2 0.0 8.0 21 42
+ 0.077328 2 8 cbr 210 ------- 2 0.0 8.0 21 42
r 0.077328 1 2 cbr 210 ------- 2 1.0 8.0 21 43
+ 0.077328 2 8 cbr 210 ------- 2 1.0 8.0 21 43
- 0.077505 2 8 cbr 210 ------- 2 0.0 8.0 20 40
r 0.078968 2 8 cbr 210 ------- 2 1.0 8.0 18 37
- 0.079274 2 8 cbr 210 ------- 2 1.0 8.0 20 41
+ 0.08064 0 2 cbr 210 ------- 2 0.0 8.0 24 48
- 0.08064 0 2 cbr 210 ------- 2 0.0 8.0 24 48
+ 0.08064 1 2 cbr 210 ------- 2 1.0 8.0 24 49
- 0.08064 1 2 cbr 210 ------- 2 1.0 8.0 24 49
r 0.080688 0 2 cbr 210 ------- 2 0.0 8.0 22 44
+ 0.080688 2 8 cbr 210 ------- 2 0.0 8.0 22 44
r 0.080688 1 2 cbr 210 ------- 2 1.0 8.0 22 45
+ 0.080688 2 8 cbr 210 ------- 2 1.0 8.0 22 45
r 0.080737 2 8 cbr 210 ------- 2 0.0 8.0 19 38
- 0.081042 2 8 cbr 210 ------- 2 0.0 8.0 21 42
r 0.082505 2 8 cbr 210 ------- 2 1.0 8.0 19 39
- 0.082811 2 8 cbr 210 ------- 2 1.0 8.0 21 43
+ 0.084 0 2 cbr 210 ------- 2 0.0 8.0 25 50
- 0.084 0 2 cbr 210 ------- 2 0.0 8.0 25 50
+ 0.084 1 2 cbr 210 ------- 2 1.0 8.0 25 51
- 0.084 1 2 cbr 210 ------- 2 1.0 8.0 25 51
r 0.084048 0 2 cbr 210 ------- 2 0.0 8.0 23 46
+ 0.084048 2 8 cbr 210 ------- 2 0.0 8.0 23 46
r 0.084048 1 2 cbr 210 ------- 2 1.0 8.0 23 47
+ 0.084048 2 8 cbr 210 ------- 2 1.0 8.0 23 47
r 0.084274 2 8 cbr 210 ------- 2 0.0 8.0 20 40
- 0.084579 2 8 cbr 210 ------- 2 0.0 8.0 22 44
r 0.086042 2 8 cbr 210 ------- 2 1.0 8.0 20 41
- 0.086347 2 8 cbr 210 ------- 2 1.0 8.0 22 45
+ 0.08736 0 2 cbr 210 ------- 2 0.0 8.0 26 52
- 0.08736 0 2 cbr 210 ------- 2 0.0 8.0 26 52
+ 0.08736 1 2 cbr 210 ------- 2 1.0 8.0 26 53
- 0.08736 1 2 cbr 210 ------- 2 1.0 8.0 26 53
r 0.087408 0 2 cbr 210 ------- 2 0.0 8.0 24 48
+ 0.087408 2 8 cbr 210 ------- 2 0.0 8.0 24 48
r 0.087408 1 2 cbr 210 ------- 2 1.0 8.0 24 49
+ 0.087408 2 8 cbr 210 ------- 2 1.0 8.0 24 49
r 0.087811 2 8 cbr 210 ------- 2 0.0 8.0 21 42
- 0.088116 2 8 cbr 210 ------- 2 0.0 8.0 23 46
r 0.089579 2 8 cbr 210 ------- 2 1.0 8.0 21 43
- 0.089884 2 8 cbr 210 ------- 2 1.0 8.0 23 47
+ 0.09072 0 2 cbr 210 ------- 2 0.0 8.0 27 54
- 0.09072 0 2 cbr 210 ------- 2 0.0 8.0 27 54
+ 0.09072 1 2 cbr 210 ------- 2 1.0 8.0 27 55
- 0.09072 1 2 cbr 210 ------- 2 1.0 8.0 27 55
r 0.090768 0 2 cbr 210 ------- 2 0.0 8.0 25 50
+ 0.090768 2 8 cbr 210 ------- 2 0.0 8.0 25 50
r 0.090768 1 2 cbr 210 ------- 2 1.0 8.0 25 51
+ 0.090768 2 8 cbr 210 ------- 2 1.0 8.0 25 51
r 0.091347 2 8 cbr 210 ------- 2 0.0 8.0 22 44
- 0.091653 2 8 cbr 210 ------- 2 0.0 8.0 24 48
r 0.093116 2 8 cbr 210 ------- 2 1.0 8.0 22 45
- 0.093421 2 8 cbr 210 ------- 2 1.0 8.0 24 49
+ 0.09408 0 2 cbr 210 ------- 2 0.0 8.0 28 56
- 0.09408 0 2 cbr 210 ------- 2 0.0 8.0 28 56
+ 0.09408 1 2 cbr 210 ------- 2 1.0 8.0 28 57
- 0.09408 1 2 cbr 210 ------- 2 1.0 8.0 28 57
r 0.094128 0 2 cbr 210 ------- 2 0.0 8.0 26 52
+ 0.094128 2 8 cbr 210 ------- 2 0.0 8.0 26 52
r 0.094128 1 2 cbr 210 ------- 2 1.0 8.0 26 53
+ 0.094128 2 8 cbr 210 ------- 2 1.0 8.0 26 53
r 0.094884 2 8 cbr 210 ------- 2 0.0 8.0 23 46
- 0.095189 2 8 cbr 210 ------- 2 0.0 8.0 25 50
r 0.096653 2 8 cbr 210 ------- 2 1.0 8.0 23 47
- 0.096958 2 8 cbr 210 ------- 2 1.0 8.0 25 51
+ 0.09744 0 2 cbr 210 ------- 2 0.0 8.0 29 58
- 0.09744 0 2 cbr 210 ------- 2 0.0 8.0 29 58
+ 0.09744 1 2 cbr 210 ------- 2 1.0 8.0 29 59
- 0.09744 1 2 cbr 210 ------- 2 1.0 8.0 29 59
r 0.097488 0 2 cbr 210 ------- 2 0.0 8.0 27 54
+ 0.097488 2 8 cbr 210 ------- 2 0.0 8.0 27 54
r 0.097488 1 2 cbr 210 ------- 2 1.0 8.0 27 55
+ 0.097488 2 8 cbr 210 ------- 2 1.0 8.0 27 55
r 0.098421 2 8 cbr 210 ------- 2 0.0 8.0 24 48
- 0.098726 2 8 cbr 210 ------- 2 0.0 8.0 26 52
r 0.100189 2 8 cbr 210 ------- 2 1.0 8.0 24 49
- 0.100495 2 8 cbr 210 ------- 2 1.0 8.0 26 53
+ 0.1008 0 2 cbr 210 ------- 2 0.0 8.0 30 60
- 0.1008 0 2 cbr 210 ------- 2 0.0 8.0 30 60
+ 0.1008 1 2 cbr 210 ------- 2 1.0 8.0 30 61
- 0.1008 1 2 cbr 210 ------- 2 1.0 8.0 30 61
r 0.100848 0 2 cbr 210 ------- 2 0.0 8.0 28 56
+ 0.100848 2 8 cbr 210 ------- 2 0.0 8.0 28 56
r 0.100848 1 2 cbr 210 ------- 2 1.0 8.0 28 57
+ 0.100848 2 8 cbr 210 ------- 2 1.0 8.0 28 57
r 0.101958 2 8 cbr 210 ------- 2 0.0 8.0 25 50
- 0.102263 2 8 cbr 210 ------- 2 0.0 8.0 27 54
r 0.103726 2 8 cbr 210 ------- 2 1.0 8.0 25 51
- 0.104032 2 8 cbr 210 ------- 2 1.0 8.0 27 55
+ 0.10416 0 2 cbr 210 ------- 2 0.0 8.0 31 62
- 0.10416 0 2 cbr 210 ------- 2 0.0 8.0 31 62
+ 0.10416 1 2 cbr 210 ------- 2 1.0 8.0 31 63
- 0.10416 1 2 cbr 210 ------- 2 1.0 8.0 31 63
r 0.104208 0 2 cbr 210 ------- 2 0.0 8.0 29 58
+ 0.104208 2 8 cbr 210 ------- 2 0.0 8.0 29 58
r 0.104208 1 2 cbr 210 ------- 2 1.0 8.0 29 59
+ 0.104208 2 8 cbr 210 ------- 2 1.0 8.0 29 59
r 0.105495 2 8 cbr 210 ------- 2 0.0 8.0 26 52
- 0.1058 2 8 cbr 210 ------- 2 0.0 8.0 28 56
r 0.107263 2 8 cbr 210 ------- 2 1.0 8.0 26 53
+ 0.10752 0 2 cbr 210 ------- 2 0.0 8.0 32 64
- 0.10752 0 2 cbr 210 ------- 2 0.0 8.0 32 64
+ 0.10752 1 2 cbr 210 ------- 2 1.0 8.0 32 65
- 0.10752 1 2 cbr 210 ------- 2 1.0 8.0 32 65
r 0.107568 0 2 cbr 210 ------- 2 0.0 8.0 30 60
+ 0.107568 2 8 cbr 210 ------- 2 0.0 8.0 30 60
r 0.107568 1 2 cbr 210 ------- 2 1.0 8.0 30 61
+ 0.107568 2 8 cbr 210 ------- 2 1.0 8.0 30 61
- 0.107568 2 8 cbr 210 ------- 2 1.0 8.0 28 57
r 0.109032 2 8 cbr 210 ------- 2 0.0 8.0 27 54
- 0.109337 2 8 cbr 210 ------- 2 0.0 8.0 29 58
r 0.1108 2 8 cbr 210 ------- 2 1.0 8.0 27 55
+ 0.11088 0 2 cbr 210 ------- 2 0.0 8.0 33 66
- 0.11088 0 2 cbr 210 ------- 2 0.0 8.0 33 66
+ 0.11088 1 2 cbr 210 ------- 2 1.0 8.0 33 67
- 0.11088 1 2 cbr 210 ------- 2 1.0 8.0 33 67
r 0.110928 0 2 cbr 210 ------- 2 0.0 8.0 31 62
+ 0.110928 2 8 cbr 210 ------- 2 0.0 8.0 31 62
r 0.110928 1 2 cbr 210 ------- 2 1.0 8.0 31 63
+ 0.110928 2 8 cbr 210 ------- 2 1.0 8.0 31 63
- 0.111105 2 8 cbr 210 ------- 2 1.0 8.0 29 59
r 0.112568 2 8 cbr 210 ------- 2 0.0 8.0 28 56
- 0.112874 2 8 cbr 210 ------- 2 0.0 8.0 30 60
+ 0.11424 0 2 cbr 210 ------- 2 0.0 8.0 34 68
- 0.11424 0 2 cbr 210 ------- 2 0.0 8.0 34 68
+ 0.11424 1 2 cbr 210 ------- 2 1.0 8.0 34 69
- 0.11424 1 2 cbr 210 ------- 2 1.0 8.0 34 69
r 0.114288 0 2 cbr 210 ------- 2 0.0 8.0 32 64
+ 0.114288 2 8 cbr 210 ------- 2 0.0 8.0 32 64
r 0.114288 1 2 cbr 210 ------- 2 1.0 8.0 32 65
+ 0.114288 2 8 cbr 210 ------- 2 1.0 8.0 32 65
r 0.114337 2 8 cbr 210 ------- 2 1.0 8.0 28 57
- 0.114642 2 8 cbr 210 ------- 2 1.0 8.0 30 61
r 0.116105 2 8 cbr 210 ------- 2 0.0 8.0 29 58
- 0.116411 2 8 cbr 210 ------- 2 0.0 8.0 31 62
+ 0.1176 0 2 cbr 210 ------- 2 0.0 8.0 35 70
- 0.1176 0 2 cbr 210 ------- 2 0.0 8.0 35 70
+ 0.1176 1 2 cbr 210 ------- 2 1.0 8.0 35 71
- 0.1176 1 2 cbr 210 ------- 2 1.0 8.0 35 71
r 0.117648 0 2 cbr 210 ------- 2 0.0 8.0 33 66
+ 0.117648 2 8 cbr 210 ------- 2 0.0 8.0 33 66
r 0.117648 1 2 cbr 210 ------- 2 1.0 8.0 33 67
+ 0.117648 2 8 cbr 210 ------- 2 1.0 8.0 33 67
r 0.117874 2 8 cbr 210 ------- 2 1.0 8.0 29 59
- 0.118179 2 8 cbr 210 ------- 2 1.0 8.0 31 63
r 0.119642 2 8 cbr 210 ------- 2 0.0 8.0 30 60
- 0.119947 2 8 cbr 210 ------- 2 0.0 8.0 32 64
+ 0.12096 0 2 cbr 210 ------- 2 0.0 8.0 36 72
- 0.12096 0 2 cbr 210 ------- 2 0.0 8.0 36 72
+ 0.12096 1 2 cbr 210 ------- 2 1.0 8.0 36 73
- 0.12096 1 2 cbr 210 ------- 2 1.0 8.0 36 73
r 0.121008 0 2 cbr 210 ------- 2 0.0 8.0 34 68
+ 0.121008 2 8 cbr 210 ------- 2 0.0 8.0 34 68
r 0.121008 1 2 cbr 210 ------- 2 1.0 8.0 34 69
+ 0.121008 2 8 cbr 210 ------- 2 1.0 8.0 34 69
r 0.121411 2 8 cbr 210 ------- 2 1.0 8.0 30 61
- 0.121716 2 8 cbr 210 ------- 2 1.0 8.0 32 65
r 0.123179 2 8 cbr 210 ------- 2 0.0 8.0 31 62
- 0.123484 2 8 cbr 210 ------- 2 0.0 8.0 33 66
+ 0.12432 0 2 cbr 210 ------- 2 0.0 8.0 37 74
- 0.12432 0 2 cbr 210 ------- 2 0.0 8.0 37 74
+ 0.12432 1 2 cbr 210 ------- 2 1.0 8.0 37 75
- 0.12432 1 2 cbr 210 ------- 2 1.0 8.0 37 75
r 0.124368 0 2 cbr 210 ------- 2 0.0 8.0 35 70
+ 0.124368 2 8 cbr 210 ------- 2 0.0 8.0 35 70
r 0.124368 1 2 cbr 210 ------- 2 1.0 8.0 35 71
+ 0.124368 2 8 cbr 210 ------- 2 1.0 8.0 35 71
r 0.124947 2 8 cbr 210 ------- 2 1.0 8.0 31 63
- 0.125253 2 8 cbr 210 ------- 2 1.0 8.0 33 67
r 0.126716 2 8 cbr 210 ------- 2 0.0 8.0 32 64
- 0.127021 2 8 cbr 210 ------- 2 0.0 8.0 34 68
+ 0.12768 0 2 cbr 210 ------- 2 0.0 8.0 38 76
- 0.12768 0 2 cbr 210 ------- 2 0.0 8.0 38 76
+ 0.12768 1 2 cbr 210 ------- 2 1.0 8.0 38 77
- 0.12768 1 2 cbr 210 ------- 2 1.0 8.0 38 77
r 0.127728 0 2 cbr 210 ------- 2 0.0 8.0 36 72
+ 0.127728 2 8 cbr 210 ------- 2 0.0 8.0 36 72
r 0.127728 1 2 cbr 210 ------- 2 1.0 8.0 36 73
+ 0.127728 2 8 cbr 210 ------- 2 1.0 8.0 36 73
r 0.128484 2 8 cbr 210 ------- 2 1.0 8.0 32 65
- 0.128789 2 8 cbr 210 ------- 2 1.0 8.0 34 69
r 0.130253 2 8 cbr 210 ------- 2 0.0 8.0 33 66
- 0.130558 2 8 cbr 210 ------- 2 0.0 8.0 35 70
+ 0.13104 0 2 cbr 210 ------- 2 0.0 8.0 39 78
- 0.13104 0 2 cbr 210 ------- 2 0.0 8.0 39 78
+ 0.13104 1 2 cbr 210 ------- 2 1.0 8.0 39 79
- 0.13104 1 2 cbr 210 ------- 2 1.0 8.0 39 79
r 0.131088 0 2 cbr 210 ------- 2 0.0 8.0 37 74
+ 0.131088 2 8 cbr 210 ------- 2 0.0 8.0 37 74
r 0.131088 1 2 cbr 210 ------- 2 1.0 8.0 37 75
+ 0.131088 2 8 cbr 210 ------- 2 1.0 8.0 37 75
r 0.132021 2 8 cbr 210 ------- 2 1.0 8.0 33 67
- 0.132326 2 8 cbr 210 ------- 2 1.0 8.0 35 71
r 0.133789 2 8 cbr 210 ------- 2 0.0 8.0 34 68
- 0.134095 2 8 cbr 210 ------- 2 0.0 8.0 36 72
+ 0.1344 0 2 cbr 210 ------- 2 0.0 8.0 40 80
- 0.1344 0 2 cbr 210 ------- 2 0.0 8.0 40 80
+ 0.1344 1 2 cbr 210 ------- 2 1.0 8.0 40 81
- 0.1344 1 2 cbr 210 ------- 2 1.0 8.0 40 81
r 0.134448 0 2 cbr 210 ------- 2 0.0 8.0 38 76
+ 0.134448 2 8 cbr 210 ------- 2 0.0 8.0 38 76
r 0.134448 1 2 cbr 210 ------- 2 1.0 8.0 38 77
+ 0.134448 2 8 cbr 210 ------- 2 1.0 8.0 38 77
r 0.135558 2 8 cbr 210 ------- 2 1.0 8.0 34 69
- 0.135863 2 8 cbr 210 ------- 2 1.0 8.0 36 73
r 0.137326 2 8 cbr 210 ------- 2 0.0 8.0 35 70
- 0.137632 2 8 cbr 210 ------- 2 0.0 8.0 37 74
+ 0.13776 0 2 cbr 210 ------- 2 0.0 8.0 41 82
- 0.13776 0 2 cbr 210 ------- 2 0.0 8.0 41 82
+ 0.13776 1 2 cbr 210 ------- 2 1.0 8.0 41 83
- 0.13776 1 2 cbr 210 ------- 2 1.0 8.0 41 83
r 0.137808 0 2 cbr 210 ------- 2 0.0 8.0 39 78
+ 0.137808 2 8 cbr 210 ------- 2 0.0 8.0 39 78
r 0.137808 1 2 cbr 210 ------- 2 1.0 8.0 39 79
+ 0.137808 2 8 cbr 210 ------- 2 1.0 8.0 39 79
r 0.139095 2 8 cbr 210 ------- 2 1.0 8.0 35 71
- 0.1394 2 8 cbr 210 ------- 2 1.0 8.0 37 75
r 0.140863 2 8 cbr 210 ------- 2 0.0 8.0 36 72
+ 0.14112 0 2 cbr 210 ------- 2 0.0 8.0 42 84
- 0.14112 0 2 cbr 210 ------- 2 0.0 8.0 42 84
+ 0.14112 1 2 cbr 210 ------- 2 1.0 8.0 42 85
- 0.14112 1 2 cbr 210 ------- 2 1.0 8.0 42 85
r 0.141168 0 2 cbr 210 ------- 2 0.0 8.0 40 80
+ 0.141168 2 8 cbr 210 ------- 2 0.0 8.0 40 80
r 0.141168 1 2 cbr 210 ------- 2 1.0 8.0 40 81
+ 0.141168 2 8 cbr 210 ------- 2 1.0 8.0 40 81
- 0.141168 2 8 cbr 210 ------- 2 0.0 8.0 38 76
r 0.142632 2 8 cbr 210 ------- 2 1.0 8.0 36 73
- 0.142937 2 8 cbr 210 ------- 2 1.0 8.0 38 77
r 0.1444 2 8 cbr 210 ------- 2 0.0 8.0 37 74
+ 0.14448 0 2 cbr 210 ------- 2 0.0 8.0 43 86
- 0.14448 0 2 cbr 210 ------- 2 0.0 8.0 43 86
+ 0.14448 1 2 cbr 210 ------- 2 1.0 8.0 43 87
- 0.14448 1 2 cbr 210 ------- 2 1.0 8.0 43 87
r 0.144528 0 2 cbr 210 ------- 2 0.0 8.0 41 82
+ 0.144528 2 8 cbr 210 ------- 2 0.0 8.0 41 82
r 0.144528 1 2 cbr 210 ------- 2 1.0 8.0 41 83
+ 0.144528 2 8 cbr 210 ------- 2 1.0 8.0 41 83
- 0.144705 2 8 cbr 210 ------- 2 0.0 8.0 39 78
r 0.146168 2 8 cbr 210 ------- 2 1.0 8.0 37 75
- 0.146474 2 8 cbr 210 ------- 2 1.0 8.0 39 79
+ 0.14784 0 2 cbr 210 ------- 2 0.0 8.0 44 88
- 0.14784 0 2 cbr 210 ------- 2 0.0 8.0 44 88
+ 0.14784 1 2 cbr 210 ------- 2 1.0 8.0 44 89
- 0.14784 1 2 cbr 210 ------- 2 1.0 8.0 44 89
r 0.147888 0 2 cbr 210 ------- 2 0.0 8.0 42 84
+ 0.147888 2 8 cbr 210 ------- 2 0.0 8.0 42 84
r 0.147888 1 2 cbr 210 ------- 2 1.0 8.0 42 85
+ 0.147888 2 8 cbr 210 ------- 2 1.0 8.0 42 85
r 0.147937 2 8 cbr 210 ------- 2 0.0 8.0 38 76
- 0.148242 2 8 cbr 210 ------- 2 0.0 8.0 40 80
r 0.149705 2 8 cbr 210 ------- 2 1.0 8.0 38 77
- 0.150011 2 8 cbr 210 ------- 2 1.0 8.0 40 81
+ 0.1512 0 2 cbr 210 ------- 2 0.0 8.0 45 90
- 0.1512 0 2 cbr 210 ------- 2 0.0 8.0 45 90
+ 0.1512 1 2 cbr 210 ------- 2 1.0 8.0 45 91
- 0.1512 1 2 cbr 210 ------- 2 1.0 8.0 45 91
r 0.151248 0 2 cbr 210 ------- 2 0.0 8.0 43 86
+ 0.151248 2 8 cbr 210 ------- 2 0.0 8.0 43 86
r 0.151248 1 2 cbr 210 ------- 2 1.0 8.0 43 87
+ 0.151248 2 8 cbr 210 ------- 2 1.0 8.0 43 87
r 0.151474 2 8 cbr 210 ------- 2 0.0 8.0 39 78
- 0.151779 2 8 cbr 210 ------- 2 0.0 8.0 41 82
r 0.153242 2 8 cbr 210 ------- 2 1.0 8.0 39 79
- 0.153547 2 8 cbr 210 ------- 2 1.0 8.0 41 83
+ 0.15456 0 2 cbr 210 ------- 2 0.0 8.0 46 92
- 0.15456 0 2 cbr 210 ------- 2 0.0 8.0 46 92
+ 0.15456 1 2 cbr 210 ------- 2 1.0 8.0 46 93
- 0.15456 1 2 cbr 210 ------- 2 1.0 8.0 46 93
r 0.154608 0 2 cbr 210 ------- 2 0.0 8.0 44 88
+ 0.154608 2 8 cbr 210 ------- 2 0.0 8.0 44 88
r 0.154608 1 2 cbr 210 ------- 2 1.0 8.0 44 89
+ 0.154608 2 8 cbr 210 ------- 2 1.0 8.0 44 89
r 0.155011 2 8 cbr 210 ------- 2 0.0 8.0 40 80
- 0.155316 2 8 cbr 210 ------- 2 0.0 8.0 42 84
r 0.156779 2 8 cbr 210 ------- 2 1.0 8.0 40 81
- 0.157084 2 8 cbr 210 ------- 2 1.0 8.0 42 85
+ 0.15792 0 2 cbr 210 ------- 2 0.0 8.0 47 94
- 0.15792 0 2 cbr 210 ------- 2 0.0 8.0 47 94
+ 0.15792 1 2 cbr 210 ------- 2 1.0 8.0 47 95
- 0.15792 1 2 cbr 210 ------- 2 1.0 8.0 47 95
r 0.157968 0 2 cbr 210 ------- 2 0.0 8.0 45 90
+ 0.157968 2 8 cbr 210 ------- 2 0.0 8.0 45 90
r 0.157968 1 2 cbr 210 ------- 2 1.0 8.0 45 91
+ 0.157968 2 8 cbr 210 ------- 2 1.0 8.0 45 91
r 0.158547 2 8 cbr 210 ------- 2 0.0 8.0 41 82
- 0.158853 2 8 cbr 210 ------- 2 0.0 8.0 43 86
r 0.160316 2 8 cbr 210 ------- 2 1.0 8.0 41 83
- 0.160621 2 8 cbr 210 ------- 2 1.0 8.0 43 87
+ 0.16128 0 2 cbr 210 ------- 2 0.0 8.0 48 96
- 0.16128 0 2 cbr 210 ------- 2 0.0 8.0 48 96
+ 0.16128 1 2 cbr 210 ------- 2 1.0 8.0 48 97
- 0.16128 1 2 cbr 210 ------- 2 1.0 8.0 48 97
r 0.161328 0 2 cbr 210 ------- 2 0.0 8.0 46 92
+ 0.161328 2 8 cbr 210 ------- 2 0.0 8.0 46 92
r 0.161328 1 2 cbr 210 ------- 2 1.0 8.0 46 93
+ 0.161328 2 8 cbr 210 ------- 2 1.0 8.0 46 93
r 0.162084 2 8 cbr 210 ------- 2 0.0 8.0 42 84
- 0.162389 2 8 cbr 210 ------- 2 0.0 8.0 44 88
r 0.163853 2 8 cbr 210 ------- 2 1.0 8.0 42 85
- 0.164158 2 8 cbr 210 ------- 2 1.0 8.0 44 89
+ 0.16464 0 2 cbr 210 ------- 2 0.0 8.0 49 98
- 0.16464 0 2 cbr 210 ------- 2 0.0 8.0 49 98
+ 0.16464 1 2 cbr 210 ------- 2 1.0 8.0 49 99
- 0.16464 1 2 cbr 210 ------- 2 1.0 8.0 49 99
r 0.164688 0 2 cbr 210 ------- 2 0.0 8.0 47 94
+ 0.164688 2 8 cbr 210 ------- 2 0.0 8.0 47 94
r 0.164688 1 2 cbr 210 ------- 2 1.0 8.0 47 95
+ 0.164688 2 8 cbr 210 ------- 2 1.0 8.0 47 95
r 0.165621 2 8 cbr 210 ------- 2 0.0 8.0 43 86
- 0.165926 2 8 cbr 210 ------- 2 0.0 8.0 45 90
r 0.167389 2 8 cbr 210 ------- 2 1.0 8.0 43 87
- 0.167695 2 8 cbr 210 ------- 2 1.0 8.0 45 91
+ 0.168 0 2 cbr 210 ------- 2 0.0 8.0 50 100
- 0.168 0 2 cbr 210 ------- 2 0.0 8.0 50 100
+ 0.168 1 2 cbr 210 ------- 2 1.0 8.0 50 101
- 0.168 1 2 cbr 210 ------- 2 1.0 8.0 50 101
r 0.168048 0 2 cbr 210 ------- 2 0.0 8.0 48 96
+ 0.168048 2 8 cbr 210 ------- 2 0.0 8.0 48 96
r 0.168048 1 2 cbr 210 ------- 2 1.0 8.0 48 97
+ 0.168048 2 8 cbr 210 ------- 2 1.0 8.0 48 97
r 0.169158 2 8 cbr 210 ------- 2 0.0 8.0 44 88
- 0.169463 2 8 cbr 210 ------- 2 0.0 8.0 46 92
r 0.170926 2 8 cbr 210 ------- 2 1.0 8.0 44 89
- 0.171232 2 8 cbr 210 ------- 2 1.0 8.0 46 93
+ 0.17136 0 2 cbr 210 ------- 2 0.0 8.0 51 102
- 0.17136 0 2 cbr 210 ------- 2 0.0 8.0 51 102
+ 0.17136 1 2 cbr 210 ------- 2 1.0 8.0 51 103
- 0.17136 1 2 cbr 210 ------- 2 1.0 8.0 51 103
r 0.171408 0 2 cbr 210 ------- 2 0.0 8.0 49 98
+ 0.171408 2 8 cbr 210 ------- 2 0.0 8.0 49 98
r 0.171408 1 2 cbr 210 ------- 2 1.0 8.0 49 99
+ 0.171408 2 8 cbr 210 ------- 2 1.0 8.0 49 99
r 0.172695 2 8 cbr 210 ------- 2 0.0 8.0 45 90
- 0.173 2 8 cbr 210 ------- 2 0.0 8.0 47 94
r 0.174463 2 8 cbr 210 ------- 2 1.0 8.0 45 91
+ 0.17472 0 2 cbr 210 ------- 2 0.0 8.0 52 104
- 0.17472 0 2 cbr 210 ------- 2 0.0 8.0 52 104
+ 0.17472 1 2 cbr 210 ------- 2 1.0 8.0 52 105
- 0.17472 1 2 cbr 210 ------- 2 1.0 8.0 52 105
r 0.174768 0 2 cbr 210 ------- 2 0.0 8.0 50 100
+ 0.174768 2 8 cbr 210 ------- 2 0.0 8.0 50 100
r 0.174768 1 2 cbr 210 ------- 2 1.0 8.0 50 101
+ 0.174768 2 8 cbr 210 ------- 2 1.0 8.0 50 101
- 0.174768 2 8 cbr 210 ------- 2 1.0 8.0 47 95
r 0.176232 2 8 cbr 210 ------- 2 0.0 8.0 46 92
- 0.176537 2 8 cbr 210 ------- 2 0.0 8.0 48 96
r 0.178 2 8 cbr 210 ------- 2 1.0 8.0 46 93
+ 0.17808 0 2 cbr 210 ------- 2 0.0 8.0 53 106
- 0.17808 0 2 cbr 210 ------- 2 0.0 8.0 53 106
+ 0.17808 1 2 cbr 210 ------- 2 1.0 8.0 53 107
- 0.17808 1 2 cbr 210 ------- 2 1.0 8.0 53 107
r 0.178128 0 2 cbr 210 ------- 2 0.0 8.0 51 102
+ 0.178128 2 8 cbr 210 ------- 2 0.0 8.0 51 102
r 0.178128 1 2 cbr 210 ------- 2 1.0 8.0 51 103
+ 0.178128 2 8 cbr 210 ------- 2 1.0 8.0 51 103
- 0.178305 2 8 cbr 210 ------- 2 1.0 8.0 48 97
r 0.179768 2 8 cbr 210 ------- 2 0.0 8.0 47 94
- 0.180074 2 8 cbr 210 ------- 2 0.0 8.0 49 98
+ 0.18144 0 2 cbr 210 ------- 2 0.0 8.0 54 108
- 0.18144 0 2 cbr 210 ------- 2 0.0 8.0 54 108
+ 0.18144 1 2 cbr 210 ------- 2 1.0 8.0 54 109
- 0.18144 1 2 cbr 210 ------- 2 1.0 8.0 54 109
r 0.181488 0 2 cbr 210 ------- 2 0.0 8.0 52 104
+ 0.181488 2 8 cbr 210 ------- 2 0.0 8.0 52 104
r 0.181488 1 2 cbr 210 ------- 2 1.0 8.0 52 105
+ 0.181488 2 8 cbr 210 ------- 2 1.0 8.0 52 105
r 0.181537 2 8 cbr 210 ------- 2 1.0 8.0 47 95
- 0.181842 2 8 cbr 210 ------- 2 1.0 8.0 49 99
r 0.183305 2 8 cbr 210 ------- 2 0.0 8.0 48 96
- 0.183611 2 8 cbr 210 ------- 2 0.0 8.0 50 100
+ 0.1848 0 2 cbr 210 ------- 2 0.0 8.0 55 110
- 0.1848 0 2 cbr 210 ------- 2 0.0 8.0 55 110
+ 0.1848 1 2 cbr 210 ------- 2 1.0 8.0 55 111
- 0.1848 1 2 cbr 210 ------- 2 1.0 8.0 55 111
r 0.184848 0 2 cbr 210 ------- 2 0.0 8.0 53 106
+ 0.184848 2 8 cbr 210 ------- 2 0.0 8.0 53 106
r 0.184848 1 2 cbr 210 ------- 2 1.0 8.0 53 107
+ 0.184848 2 8 cbr 210 ------- 2 1.0 8.0 53 107
r 0.185074 2 8 cbr 210 ------- 2 1.0 8.0 48 97
- 0.185379 2 8 cbr 210 ------- 2 1.0 8.0 50 101
r 0.186842 2 8 cbr 210 ------- 2 0.0 8.0 49 98
- 0.187147 2 8 cbr 210 ------- 2 0.0 8.0 51 102
+ 0.18816 0 2 cbr 210 ------- 2 0.0 8.0 56 112
- 0.18816 0 2 cbr 210 ------- 2 0.0 8.0 56 112
+ 0.18816 1 2 cbr 210 ------- 2 1.0 8.0 56 113
- 0.18816 1 2 cbr 210 ------- 2 1.0 8.0 56 113
r 0.188208 0 2 cbr 210 ------- 2 0.0 8.0 54 108
+ 0.188208 2 8 cbr 210 ------- 2 0.0 8.0 54 108